     108
 Properties=species:S:1:pos:R:3:velocities:R:3:forces:R:3:local_energy:R:1:fix_atoms:S:3 Lattice="100.0000000000      0.0000000000    0.0000000000    0.0000000000  100.0000000000    0.0000000000    0.0000000000    0.0000000000  100.0000000000" temperature=116.83379217 pressure=NaN time_step=1.0000 time=0.0000 energy=NaN virial="NaN                          NaN             NaN             NaN             NaN             NaN             NaN             NaN             NaN" stress="NaN                          NaN             NaN             NaN             NaN             NaN             NaN             NaN             NaN" volume=1000000.000000 step=0
 C             48.73499818      57.63755468      52.33071702      -0.00401621       0.00127496       0.00122899      -0.00597101       1.05891883       0.84412361      -8.96346795 F F F
 C             49.63244218      57.20859238      51.29379522       0.00336050       0.00117959       0.00078557       0.42451639      -0.60365117      -1.11549772      -8.14813269 F F F
 C             47.85324588      56.73499768      52.90008982       0.00061191       0.00113751      -0.00009433       0.82185486      -1.55622679      -0.20518206      -8.45655513 F F F
 C             49.61567378      55.89239108      50.86519062      -0.00196158      -0.00358262      -0.00393053      -0.13646267       0.08985145       0.00142083      -7.27017246 F F F
 C             49.71272738      55.59343168      49.46406612      -0.00284966       0.00022082       0.00474308       0.58507207       1.09722523       1.19234522      -8.25638592 F F F
 C             49.74626518      58.27398818      50.33771062      -0.00422285       0.00459605       0.00424247      -0.00090860       0.19813012      -0.49621168      -6.82685699 F F F
 C             49.82330098      56.62077738      48.54335282      -0.00119125      -0.00122115       0.00232967      -0.13456515      -0.84353022      -0.59916225      -7.01135529 F F F
 C             46.07671868      58.41003998      52.87186862      -0.00393596       0.00027334       0.00093741      -0.18363514       0.19905114       0.56572212      -8.68870772 F F F
 C             46.99200848      59.34587458      52.28129302      -0.00383835       0.00461072       0.00273005       0.20741292       0.63813224       0.35687803      -8.68607115 F F F
 C             46.49914538      57.12731348      53.17239252       0.00426644       0.00265311      -0.00003359      -0.82504438      -0.33642026       0.76413514      -8.73826478 F F F
 C             48.29759458      58.96854998      52.01673572       0.00543255      -0.00023151      -0.00259949       0.18030355      -0.17916865       0.88035229      -8.74196766 F F F
 C             48.92026518      59.36046048      50.78272052      -0.00202246       0.00316690      -0.00351073       1.42818701      -0.62721101      -0.90440145      -8.45007772 F F F
 C             46.26378338      60.13298508      51.32607832       0.00160016       0.00420335       0.00106288       0.42898588       0.85541755       0.21547608      -8.71510748 F F F
 C             46.86557548      60.51013038      50.13836342      -0.00014357      -0.00367733      -0.00095283       0.28777362       0.33336880       0.24439909      -8.69725302 F F F
 C             48.21991998      60.12013618      49.86142892      -0.00298173       0.00096758      -0.00044996      -0.08338887       0.69697866       0.47113335      -8.90936679 F F F
 C             44.39896348      56.20500628      52.33386292      -0.00360636      -0.00459502       0.00445487              NaN              NaN              NaN      -8.51763328 F F F
 C             43.96270388      57.53641178      52.01693812      -0.00097351       0.00074623      -0.00189463              NaN              NaN              NaN      -8.51574480 F F F
 C             45.64665078      56.00469308      52.90049682       0.00162832      -0.00246164      -0.00429245       0.24678988       0.92252305       1.07140396      -8.99043101 F F F
 C             44.78329328      58.61888788      52.28349992       0.00228567      -0.00173395       0.00304233       0.12423116      -0.05687447       0.86341426      -8.90967860 F F F
 C             44.89855608      59.68659458      51.32794772      -0.00325737       0.00370530      -0.00200408      -1.71418294       0.17191893      -1.46008164      -8.46270264 F F F
 C             43.22632188      57.48107868      50.78418742      -0.00161841      -0.00140656       0.00038806              NaN              NaN              NaN      -6.86556639 F F F
 C             44.18877678      59.63225428      50.13985782       0.00020271       0.00477307       0.00292606       0.76278283       0.67398237       0.34379172      -6.88180649 F F F
 C             46.02428188      54.07111448      51.45779742      -0.00094914       0.00124815       0.00105954              NaN              NaN              NaN      -5.21875519 F F F
 C             46.47337838      54.91800748      52.45764962       0.00012100      -0.00289442       0.00446931       0.37885727      -0.14979904      -0.43361176      -7.92740045 F F F
 C             43.93565578      55.32830878      51.29673812       0.00318606      -0.00362917       0.00329162              NaN              NaN              NaN      -6.86981212 F F F
 C             43.20873238      56.11582798      50.34029342       0.00448139       0.00179371       0.00126509              NaN              NaN              NaN      -8.27027011 F F F
 C             44.82961098      53.98163348      49.46611022       0.00160077       0.00351860       0.00148124              NaN              NaN              NaN      -6.99099377 F F F
 C             44.12931278      54.74120628      48.54478042      -0.00192571      -0.00099573       0.00292793              NaN              NaN              NaN              NaN F F F
 C             43.30338468      55.82770808      48.98980852      -0.00248584       0.00109643       0.00202545              NaN              NaN              NaN      -8.91160705 F F F
 C             48.23666478      54.07592348      50.41948642       0.00046506      -0.00086509       0.00044969      -0.05794174       0.47413140      -1.40262924      -4.76493054 F F F
 C             47.83786848      55.36794998      52.45815582       0.00299492      -0.00292069       0.00426496       1.13022843      -0.01958111      -0.15072929      -6.93148992 F F F
 C             46.18398098      53.59170328      49.18920562       0.00033614      -0.00321763       0.00199575              NaN              NaN              NaN      -7.27760190 F F F
 C             48.86080858      54.46944168      49.18766162       0.00430761       0.00523185       0.00180246      -1.46148147      -1.30138032       1.97342518      -8.28709026 F F F
 C             48.15117858      54.41515668      47.99953572       0.00521149      -0.00377953       0.00367936              NaN              NaN              NaN      -9.05125646 F F F
 C             46.78593808      53.96876448      48.00150482      -0.00293730       0.00288471      -0.00191084              NaN              NaN              NaN      -8.25401357 F F F
 C             44.31471848      56.46402798      46.99673662      -0.00031509      -0.00134352       0.00064661              NaN              NaN              NaN      -6.96788755 F F F
 C             46.05773058      54.75584068      47.04625612       0.00250352      -0.00138090       0.00081741              NaN              NaN              NaN      -6.84268097 F F F
 C             45.19645288      57.36665988      46.42752912       0.00163471       0.00267672       0.00011096              NaN              NaN              NaN      -8.46833492 F F F
 C             44.34881468      59.14542988      47.87143722       0.00382177      -0.00170749      -0.00491463              NaN              NaN              NaN      -8.55079989 F F F
 C             43.43383658      58.20923878      48.46219172      -0.00145271       0.00019828      -0.00484137              NaN              NaN              NaN      -7.00854867 F F F
 C             43.41719388      56.89304628      48.03360392      -0.00291555      -0.00353684      -0.00236203              NaN              NaN              NaN      -8.24062694 F F F
 C             45.21166638      58.73372078      46.86940272       0.00030770      -0.00328690      -0.00479075              NaN              NaN              NaN      -8.78392932 F F F
 C             47.02512528      60.03085528      47.86974632       0.00310952      -0.00411360       0.00009739      -0.45012906       0.55962709      -0.73978506      -8.71891265 F F F
 C             46.12868808      60.45617328      48.90803942      -0.00216396       0.00424121      -0.00482077       0.20648722       0.62511774      -0.32510121      -8.75111536 F F F
 C             44.81273998      60.02580378      48.90796782       0.00145424      -0.00414788      -0.00454729      -1.41613598      -0.02791963       1.90298616      -8.53156422 F F F
 C             46.57608528      59.18383938      46.87002162       0.00096719      -0.00070153      -0.00416099      -0.08697695       0.65569853      -0.23120803      -8.69529928 F F F
 C             48.65066588      57.89697248      46.99371322       0.00525119       0.00138530      -0.00205184       1.29720111       1.62486148       1.19457937      -8.52972642 F F F
 C             49.11398818      58.77366578      48.03081042       0.00332967      -0.00055242      -0.00110106      -0.70402520       0.63513280      -0.47059651      -6.88457549 F F F
 C             48.31910388      59.82395998      48.45894042      -0.00262969       0.00449994      -0.00054681       1.86255811      -1.16980658      -0.62739841      -8.45983816 F F F
 C             47.40293518      58.09724298      46.42723532       0.00070489      -0.00387491      -0.00435980      -0.26441070      -0.13658173      -0.63603845      -8.75925016 F F F
 C             46.97304808      55.69178548      46.45571562      -0.00302889      -0.00150075       0.00082264              NaN              NaN              NaN      -8.44633723 F F F
 C             48.26649768      55.48293588      47.04399522      -0.00291835       0.00243884      -0.00069965              NaN              NaN              NaN      -8.80676511 F F F
 C             49.08697528      56.56553868      47.31056402       0.00334203      -0.00361010       0.00097516       1.78963127       0.12815012       1.46638623      -8.53535934 F F F
 C             46.55059328      56.97453488      46.15532202      -0.00291874      -0.00422350      -0.00272027              NaN              NaN              NaN      -8.90765141 F F F
 C             55.99798190      42.43222750      52.58006423      -0.00127492      -0.00171612       0.00191668       0.31803988      -0.26261068       0.48899688      -8.68533305 F F F
 C             56.42207771      41.70999182      51.41252855      -0.00388684       0.00299326       0.00294326       0.42837452      -0.41492220       0.22326742      -8.68652841 F F F
 C             54.94251648      41.95957383      53.34090122      -0.00346103       0.00498971      -0.00277353       0.47649745      -0.17178410       0.38536310      -8.68407660 F F F
 C             55.77555474      40.54098677      51.04948010      -0.00370463       0.00396018      -0.00097708       0.59147453      -0.25927587       0.29628308      -8.68049736 F F F
 C             55.47497168      40.28719420      49.66847136       0.00298950       0.00009331       0.00122958       0.37612523      -0.19733785      -0.36136784      -8.69491595 F F F
 C             56.79126762      42.66819840      50.40870555      -0.00369227       0.00408952       0.00300459       0.58046676      -0.01378782      -0.25992293      -8.68051786 F F F
 C             56.50263256      42.42330723      49.07741803      -0.00312876       0.00429384      -0.00223259       0.69462364      -0.74331773       0.10778910      -8.73418531 F F F
 C             55.83192966      41.21078626      48.70154975      -0.00010275       0.00100828      -0.00438354       1.01582837      -0.29737006       0.31723228      -8.75921981 F F F
 C             54.06073688      44.22454206      53.57541277       0.00096567       0.00398707       0.00181299       0.55573412       0.05447256       0.47215142      -8.73819128 F F F
 C             55.15599103      44.71420092      52.78612581      -0.00314113       0.00091059       0.00097423       0.41264366       0.03351479       0.89164848      -8.73700625 F F F
 C             53.95458280      42.87162900      53.84467798      -0.00412053      -0.00175179      -0.00241316       0.21175565       0.13825353       0.68229693      -8.68098739 F F F
 C             56.10854599      43.83575434      52.29838599       0.00221461      -0.00268741      -0.00117565       0.34055085       0.35891524       0.33964138      -8.68441205 F F F
 C             56.59573440      43.98136723      50.95467830      -0.00289066       0.00529031       0.00167701       0.69842141       0.31425864       0.04879872      -8.68579817 F F F
 C             54.66051498      45.77287264      51.95185516       0.00464055       0.00386128      -0.00229501      -1.40971998       0.87817203       0.32337648      -8.47594422 F F F
 C             55.13160588      45.91192597      50.65810227      -0.00047803      -0.00385793       0.00330762       0.76467536       0.00190673       0.18796644      -8.91581779 F F F
 C             56.11986481      45.00206608      50.14963744       0.00184394       0.00067164      -0.00009979       0.31325937       0.19077420      -0.07527037      -8.69950973 F F F
 C             51.54541924      42.95002639      53.45182784       0.00353420      -0.00183840      -0.00163322       0.00847470      -0.19409483       0.89240789      -8.78370290 F F F
 C             51.65662233      44.35356776      53.16702988       0.00363425       0.00404751      -0.00102265      -0.67842065       0.43758175      -0.52974353      -8.78315607 F F F
 C             52.67585925      42.22196411      53.78342042      -0.00442136      -0.00145029      -0.00285599      -0.37064145       0.00001561       0.53122715      -8.68358802 F F F
 C             52.88917649      44.98041450      53.23067001      -0.00216261      -0.00398334      -0.00032365       0.24478075       1.25900583      -0.74648765      -8.69482260 F F F
 C             53.26071361      45.94009157      52.22700512      -0.00135905       0.00043057       0.00307461       0.23775186       0.20652213      -0.49358595      -6.32934041 F F F
 C             50.74902543      44.66306304      52.09676121       0.00102735       0.00026360      -0.00211035      -1.39039283      -1.19952576      -2.55376379      -6.41774842 F F F
 C             51.93174959      40.36971367      52.37694180      -0.00340345      -0.00176582      -0.00094212      -0.19883202      -0.34927533       0.47618371      -8.69348985 F F F
 C             50.75876357      41.12403114      52.03151511      -0.00381596      -0.00082898      -0.00151225       0.10276542      -0.29187924       0.91010685      -8.91981359 F F F
 C             52.87235326      40.90820729      53.23944350       0.00109595      -0.00187558      -0.00171802      -0.12212202      -0.65008989       0.41468917      -8.68573879 F F F
 C             50.57274006      42.39200012      52.55662826      -0.00351538      -0.00414856       0.00481160      -1.10825040       0.73875339      -0.60339240      -8.54149852 F F F
 C             50.07836234      43.45054793      51.72089040       0.00156341      -0.00170592      -0.00394489       0.77812611       1.30810527       0.51045367      -6.34634947 F F F
 C             50.46097220      40.87174343      50.64869317       0.00362090       0.00406685       0.00354672      -1.43919192       1.47757809      -1.15349483      -8.53433164 F F F
 C             49.98509411      41.89233083      49.84361031      -0.00090394      -0.00100775       0.00108660      -0.22279882      -0.74347520       0.47581892      -6.82238313 F F F
 C             54.68044112      40.05095175      51.83898251       0.00175868      -0.00181029      -0.00228061       0.17092965      -0.38637742       0.47440050      -8.68825824 F F F
 C             53.70576412      39.48986962      50.94463671      -0.00143608      -0.00208425      -0.00244561      -0.23423612      -0.59482958       0.17091456      -8.68228818 F F F
 C             54.27343166      40.74442057      52.96661578       0.00515899      -0.00418355       0.00381148       0.22271757      -0.46709026       0.15338650      -8.68687875 F F F
 C             52.35619619      39.65122654      51.20812711      -0.00077993       0.00306154       0.00470542       0.08979235      -0.77743655       0.06188021      -8.68107781 F F F
 C             51.44928619      39.96192966      50.14025028       0.00239943      -0.00131542      -0.00369679      -0.02027011      -1.16617649       0.09954226      -8.77686500 F F F
 C             54.19534417      39.63623254      49.60273743      -0.00388804      -0.00333870      -0.00482149       0.21652632      -0.64289529       0.25462622      -8.75595874 F F F
 C             53.32028629      39.93361819      48.57123356       0.00439769      -0.00256089       0.00223580       0.55595572       0.71298033      -1.86525946      -8.54686204 F F F
 C             51.92049108      40.10083697      48.84648392      -0.00211380       0.00383254      -0.00208811      -0.97998297       1.05445058      -1.54782735      -8.54410539 F F F
 C             50.58292578      43.44133812      48.21815554       0.00320313      -0.00086998       0.00464499       0.13877574       1.08403684       0.08785090      -7.31975998 F F F
 C             50.47233176      42.03778351      48.49984044      -0.00005950      -0.00327789      -0.00131076      -0.76430277       1.00575339       1.23849526      -7.94318837 F F F
 C             51.42500995      41.15947162      48.01217803      -0.00013550       0.00352148      -0.00080504      -0.09559930      -0.70163935       0.12149019      -7.11029897 F F F
 C             51.63843754      43.91406037      47.45748105       0.00397326       0.00321133       0.00188657       1.19512407      -1.78399446      -0.41289334      -7.96384406 F F F
 C             51.90026932      45.82283131      48.95928711      -0.00045960      -0.00186600       0.00284580      -1.01708676       0.47148612       3.51717689      -8.11963348 F F F
 C             50.80517611      45.33271107      49.74870625       0.00277287      -0.00322016       0.00056745       0.71047456      -0.82683048       0.30379729      -4.97129970 F F F
 C             52.30737098      45.12929680      47.83173724      -0.00336289       0.00217560      -0.00455609       2.72106547      -1.18881995      -2.12885712      -9.01830009 F F F
 C             54.64906214      45.50432902      48.42140815       0.00086764      -0.00352954      -0.00432815      -0.43872874      -0.70835487      -2.44104358      -8.50445302 F F F
 C             54.22458954      46.22278058      49.59025288       0.00011439      -0.00371767       0.00161973      -2.19205517       1.35785597       0.86919798      -8.56066397 F F F
 C             52.87492714      46.38395783      49.85363588      -0.00064509       0.00424814       0.00182845      -0.12760207       0.14335855       0.14779641      -6.86071571 F F F
 C             53.70848096      44.96569497      47.55902614      -0.00060198       0.00434676       0.00229775      -0.72467422       0.37474314       0.24235579      -6.92663735 F F F
 C             55.03559974      42.92393000      47.34651206      -0.00373574      -0.00034946       0.00425010      -0.46880891       1.03326403      -0.31994239      -6.81982977 F F F
 C             56.00828498      43.48194748      48.24168200       0.00185083      -0.00081588      -0.00047281      -0.72836125       0.13449446      -1.32379299      -8.45789851 F F F
 C             55.82208647      44.74996154      48.76677695       0.00197514       0.00005147       0.00283183       0.90137551       0.22181276       0.22854483      -8.91022886 F F F
 C             53.69190600      40.89333693      47.56756665       0.00286207      -0.00098055       0.00039075       0.75445429      -0.65483241       0.20290779      -6.97429765 F F F
 C             54.92441523      41.52034516      47.63122927      -0.00120811       0.00306920       0.00261691      -1.14287709       0.02639183      -0.96717129      -8.21399169 F F F
 C             52.62650448      43.00215757      46.95378277       0.00416591      -0.00346769      -0.00416332      -0.95260528       0.66956586       0.63375411      -4.85224412 F F F
     108
 Properties=species:S:1:pos:R:3:velocities:R:3:forces:R:3:local_energy:R:1:fix_atoms:S:3 Lattice="99.0000000000       0.0000000000    0.0000000000    0.0000000000   99.0000000000    0.0000000000    0.0000000000    0.0000000000   99.0000000000" temperature=NaN pressure=NaN time_step=1.0000 time=60.0000 energy=-11.486510 virial="0.00000000            0.00000000      0.00000000      0.00000000      0.00000000      0.00000000      0.00000000      0.00000000      0.00000000" stress="-0.00000000          -0.00000000     -0.00000000     -0.00000000     -0.00000000     -0.00000000     -0.00000000     -0.00000000     -0.00000000" volume=970299.000000 step=60
 C                     NaN              NaN              NaN              NaN              NaN              NaN       0.00000000       0.00000000       0.00000000      -0.10635658 F F F
 C                     NaN              NaN              NaN              NaN              NaN              NaN       0.00000000       0.00000000       0.00000000      -0.10635658 F F F
 C                     NaN              NaN              NaN              NaN              NaN              NaN       0.00000000       0.00000000       0.00000000      -0.10635658 F F F
 C                     NaN              NaN              NaN              NaN              NaN              NaN       0.00000000       0.00000000       0.00000000      -0.10635658 F F F
 C                     NaN              NaN              NaN              NaN              NaN              NaN       0.00000000       0.00000000       0.00000000      -0.10635658 F F F
 C                     NaN              NaN              NaN              NaN              NaN              NaN       0.00000000       0.00000000       0.00000000      -0.10635658 F F F
 C                     NaN              NaN              NaN              NaN              NaN              NaN       0.00000000       0.00000000       0.00000000      -0.10635658 F F F
 C                     NaN              NaN              NaN              NaN              NaN              NaN       0.00000000       0.00000000       0.00000000      -0.10635658 F F F
 C                     NaN              NaN              NaN              NaN              NaN              NaN       0.00000000       0.00000000       0.00000000      -0.10635658 F F F
 C                     NaN              NaN              NaN              NaN              NaN              NaN       0.00000000       0.00000000       0.00000000      -0.10635658 F F F
 C                     NaN              NaN              NaN              NaN              NaN              NaN       0.00000000       0.00000000       0.00000000      -0.10635658 F F F
 C                     NaN              NaN              NaN              NaN              NaN              NaN       0.00000000       0.00000000       0.00000000      -0.10635658 F F F
 C                     NaN              NaN              NaN              NaN              NaN              NaN       0.00000000       0.00000000       0.00000000      -0.10635658 F F F
 C                     NaN              NaN              NaN              NaN              NaN              NaN       0.00000000       0.00000000       0.00000000      -0.10635658 F F F
 C                     NaN              NaN              NaN              NaN              NaN              NaN       0.00000000       0.00000000       0.00000000      -0.10635658 F F F
 C                     NaN              NaN              NaN              NaN              NaN              NaN       0.00000000       0.00000000       0.00000000      -0.10635658 F F F
 C                     NaN              NaN              NaN              NaN              NaN              NaN       0.00000000       0.00000000       0.00000000      -0.10635658 F F F
 C                     NaN              NaN              NaN              NaN              NaN              NaN       0.00000000       0.00000000       0.00000000      -0.10635658 F F F
 C                     NaN              NaN              NaN              NaN              NaN              NaN       0.00000000       0.00000000       0.00000000      -0.10635658 F F F
 C                     NaN              NaN              NaN              NaN              NaN              NaN       0.00000000       0.00000000       0.00000000      -0.10635658 F F F
 C                     NaN              NaN              NaN              NaN              NaN              NaN       0.00000000       0.00000000       0.00000000      -0.10635658 F F F
 C                     NaN              NaN              NaN              NaN              NaN              NaN       0.00000000       0.00000000       0.00000000      -0.10635658 F F F
 C                     NaN              NaN              NaN              NaN              NaN              NaN       0.00000000       0.00000000       0.00000000      -0.10635658 F F F
 C                     NaN              NaN              NaN              NaN              NaN              NaN       0.00000000       0.00000000       0.00000000      -0.10635658 F F F
 C                     NaN              NaN              NaN              NaN              NaN              NaN       0.00000000       0.00000000       0.00000000      -0.10635658 F F F
 C                     NaN              NaN              NaN              NaN              NaN              NaN       0.00000000       0.00000000       0.00000000      -0.10635658 F F F
 C                     NaN              NaN              NaN              NaN              NaN              NaN       0.00000000       0.00000000       0.00000000      -0.10635658 F F F
 C                     NaN              NaN              NaN              NaN              NaN              NaN       0.00000000       0.00000000       0.00000000      -0.10635658 F F F
 C                     NaN              NaN              NaN              NaN              NaN              NaN       0.00000000       0.00000000       0.00000000      -0.10635658 F F F
 C                     NaN              NaN              NaN              NaN              NaN              NaN       0.00000000       0.00000000       0.00000000      -0.10635658 F F F
 C                     NaN              NaN              NaN              NaN              NaN              NaN       0.00000000       0.00000000       0.00000000      -0.10635658 F F F
 C                     NaN              NaN              NaN              NaN              NaN              NaN       0.00000000       0.00000000       0.00000000      -0.10635658 F F F
 C                     NaN              NaN              NaN              NaN              NaN              NaN       0.00000000       0.00000000       0.00000000      -0.10635658 F F F
 C                     NaN              NaN              NaN              NaN              NaN              NaN       0.00000000       0.00000000       0.00000000      -0.10635658 F F F
 C                     NaN              NaN              NaN              NaN              NaN              NaN       0.00000000       0.00000000       0.00000000      -0.10635658 F F F
 C                     NaN              NaN              NaN              NaN              NaN              NaN       0.00000000       0.00000000       0.00000000      -0.10635658 F F F
 C                     NaN              NaN              NaN              NaN              NaN              NaN       0.00000000       0.00000000       0.00000000      -0.10635658 F F F
 C                     NaN              NaN              NaN              NaN              NaN              NaN       0.00000000       0.00000000       0.00000000      -0.10635658 F F F
 C                     NaN              NaN              NaN              NaN              NaN              NaN       0.00000000       0.00000000       0.00000000      -0.10635658 F F F
 C                     NaN              NaN              NaN              NaN              NaN              NaN       0.00000000       0.00000000       0.00000000      -0.10635658 F F F
 C                     NaN              NaN              NaN              NaN              NaN              NaN       0.00000000       0.00000000       0.00000000      -0.10635658 F F F
 C                     NaN              NaN              NaN              NaN              NaN              NaN       0.00000000       0.00000000       0.00000000      -0.10635658 F F F
 C                     NaN              NaN              NaN              NaN              NaN              NaN       0.00000000       0.00000000       0.00000000      -0.10635658 F F F
 C                     NaN              NaN              NaN              NaN              NaN              NaN       0.00000000       0.00000000       0.00000000      -0.10635658 F F F
 C                     NaN              NaN              NaN              NaN              NaN              NaN       0.00000000       0.00000000       0.00000000      -0.10635658 F F F
 C                     NaN              NaN              NaN              NaN              NaN              NaN       0.00000000       0.00000000       0.00000000      -0.10635658 F F F